PRIMVEC
   8.848638093246    0.000000000000    0.000000000000
   4.424319046623    7.663145377646    0.000000000000
   0.000000000000    0.000000000000   61.716119495344
PRIMCOORD
100 1
Au    2.949546031082    1.702921195032  -15.591705750333 
Au    5.899092062164    1.702921195032  -15.591705750333 
Au    4.424319046623    4.257302987581  -15.591705750333 
Au    4.424319046623    2.554381792549  -13.183411500665 
Au    0.000000000000    0.000000000000  -18.000000000000 
Au    2.949546031082    0.000000000000  -18.000000000000 
Au    5.899092062164    0.000000000000  -18.000000000000 
Au    1.474773015541    2.554381792549  -18.000000000000 
Au    4.424319046623    2.554381792549  -18.000000000000 
Au    7.373865077705    2.554381792549  -18.000000000000 
Au    2.949546031082    5.108763585097  -18.000000000000 
Au    5.899092062164    5.108763585097  -18.000000000000 
Au    8.848638093246    5.108763585097  -18.000000000000 
Au    1.474773015541    0.851460597516  -20.408294249667 
Au    4.424319046623    0.851460597516  -20.408294249667 
Au    7.373865077705    0.851460597516  -20.408294249667 
Au    2.949546031082    3.405842390065  -20.408294249667 
Au    5.899092062164    3.405842390065  -20.408294249667 
Au    8.848638093246    3.405842390065  -20.408294249667 
Au    4.424319046623    5.960224182613  -20.408294249667 
Au    7.373865077705    5.960224182613  -20.408294249667 
Au   10.323411108787    5.960224182613  -20.408294249667 
Au    2.949546031082    1.702921195032   -2.408294249667 
Au    5.899092062164    1.702921195032   -2.408294249667 
Au    4.424319046623    4.257302987581   -2.408294249667 
Au    4.424319046623    2.554381792549   -4.816588499335 
Au    0.000000000000    0.000000000000    0.000000000000 
Au    2.949546031082    0.000000000000    0.000000000000 
Au    5.899092062164    0.000000000000    0.000000000000 
Au    1.474773015541    2.554381792549    0.000000000000 
Au    4.424319046623    2.554381792549    0.000000000000 
Au    7.373865077705    2.554381792549    0.000000000000 
Au    2.949546031082    5.108763585097    0.000000000000 
Au    5.899092062164    5.108763585097    0.000000000000 
Au    8.848638093246    5.108763585097    0.000000000000 
Au    1.474773015541    0.851460597516    2.408294249667 
Au    4.424319046623    0.851460597516    2.408294249667 
Au    7.373865077705    0.851460597516    2.408294249667 
Au    2.949546031082    3.405842390065    2.408294249667 
Au    5.899092062164    3.405842390065    2.408294249667 
Au    8.848638093246    3.405842390065    2.408294249667 
Au    4.424319046623    5.960224182613    2.408294249667 
Au    7.373865077705    5.960224182613    2.408294249667 
Au   10.323411108787    5.960224182613    2.408294249667 
Au    4.424319046623    2.554381792549   -7.816588499335 
Au    4.424319046623    2.554381792549  -10.183411500665 
Au    2.949546031082    1.702921195032  -22.816588499335 
Au    5.899092062164    1.702921195032  -22.816588499335 
Au    8.848638093246    1.702921195032  -22.816588499335 
Au    4.424319046623    4.257302987581  -22.816588499335 
Au    7.373865077705    4.257302987581  -22.816588499335 
Au   10.323411108787    4.257302987581  -22.816588499335 
Au    5.899092062164    6.811684780130  -22.816588499335 
Au    8.848638093246    6.811684780130  -22.816588499335 
Au   11.798184124328    6.811684780130  -22.816588499335 
Au    0.000000000000    0.000000000000  -25.224882749002 
Au    2.949546031082    0.000000000000  -25.224882749002 
Au    5.899092062164    0.000000000000  -25.224882749002 
Au    1.474773015541    2.554381792549  -25.224882749002 
Au    4.424319046623    2.554381792549  -25.224882749002 
Au    7.373865077705    2.554381792549  -25.224882749002 
Au    2.949546031082    5.108763585097  -25.224882749002 
Au    5.899092062164    5.108763585097  -25.224882749002 
Au    8.848638093246    5.108763585097  -25.224882749002 
Au    1.474773015541    0.851460597516  -27.633176998670 
Au    4.424319046623    0.851460597516  -27.633176998670 
Au    7.373865077705    0.851460597516  -27.633176998670 
Au    2.949546031082    3.405842390065  -27.633176998670 
Au    5.899092062164    3.405842390065  -27.633176998670 
Au    8.848638093246    3.405842390065  -27.633176998670 
Au    4.424319046623    5.960224182613  -27.633176998670 
Au    7.373865077705    5.960224182613  -27.633176998670 
Au   10.323411108787    5.960224182613  -27.633176998670 
Au    2.949546031082    1.702921195032    4.816588499335 
Au    5.899092062164    1.702921195032    4.816588499335 
Au    8.848638093246    1.702921195032    4.816588499335 
Au    4.424319046623    4.257302987581    4.816588499335 
Au    7.373865077705    4.257302987581    4.816588499335 
Au   10.323411108787    4.257302987581    4.816588499335 
Au    5.899092062164    6.811684780130    4.816588499335 
Au    8.848638093246    6.811684780130    4.816588499335 
Au   11.798184124328    6.811684780130    4.816588499335 
Au    0.000000000000    0.000000000000    7.224882749002 
Au    2.949546031082    0.000000000000    7.224882749002 
Au    5.899092062164    0.000000000000    7.224882749002 
Au    1.474773015541    2.554381792549    7.224882749002 
Au    4.424319046623    2.554381792549    7.224882749002 
Au    7.373865077705    2.554381792549    7.224882749002 
Au    2.949546031082    5.108763585097    7.224882749002 
Au    5.899092062164    5.108763585097    7.224882749002 
Au    8.848638093246    5.108763585097    7.224882749002 
Au    1.474773015541    0.851460597516    9.633176998670 
Au    4.424319046623    0.851460597516    9.633176998670 
Au    7.373865077705    0.851460597516    9.633176998670 
Au    2.949546031082    3.405842390065    9.633176998670 
Au    5.899092062164    3.405842390065    9.633176998670 
Au    8.848638093246    3.405842390065    9.633176998670 
Au    4.424319046623    5.960224182613    9.633176998670 
Au    7.373865077705    5.960224182613    9.633176998670 
Au   10.323411108787    5.960224182613    9.633176998670 
